HEADER
"PSFversion" "1.00"
"M0n" "ts018_scl_prim_pmos_18_spectre"
"M1n" "ts018_scl_prim_nmos_18_spectre"
"GNDv" ":1v"
"INv" ":2v"
"OUTv" ":3v"
"VDDv" ":4v"
