HEADER
"PSFversion" "1.00"
"simulator" "spectre"
"version" "21.1.0.546.isr13"
"date" "11:25:15 AM, Wed Jun 24, 2026"
"design" "// Generated for: spectre"
"analysis type" "info.subckts"
"analysis name" "subckts"
"analysis description" "Circuit Information"
"xVecSorted" "unknown"
"tolerance.relative" 0.00100000
TYPE
"subckt" STRUCT(
"subckt_params" STRING *
"subckt_terminals" STRING *
"subckt_instances" STRING *
) PROP(
"key" "sub"
)
VALUE
"inverter_calibre" "subckt" (
""
"GND IN OUT VDD"
"I0"
)
END
