HEADER
"PSFversion" "1.00"
"Time Stamp" "Jun 24 11:24:54 2026"
TYPE
"variable" STRUCT(
"value" FLOAT DOUBLE
) PROP( "key" "element" )
VALUE
"temp" "variable" ( 27 ) PROP( )
END
